 vasp.5.4.4.18Apr17-6-g9f103f2a35 (build May 29 2022 01:12:50) complex          
  
 executed on             LinuxIFC date 2025.03.09  00:51:20
 running on  128 total cores
 distrk:  each k-point on  128 cores,    1 groups
 distr:  one band on NCORES_PER_BAND=   1 cores,  128 groups


--------------------------------------------------------------------------------------------------------


 INCAR:
 POTCAR:   PAW_RPBE O 08Apr2002                   
 POTCAR:   PAW_RPBE H 15Jun2001                   

 ----------------------------------------------------------------------------- 
|                                                                             |
|           W    W    AA    RRRRR   N    N  II  N    N   GGGG   !!!           |
|           W    W   A  A   R    R  NN   N  II  NN   N  G    G  !!!           |
|           W    W  A    A  R    R  N N  N  II  N N  N  G       !!!           |
|           W WW W  AAAAAA  RRRRR   N  N N  II  N  N N  G  GGG   !            |
|           WW  WW  A    A  R   R   N   NN  II  N   NN  G    G                |
|           W    W  A    A  R    R  N    N  II  N    N   GGGG   !!!           |
|                                                                             |
|      For optimal performance we recommend to set                            |
|        NCORE= 4 - approx SQRT( number of cores)                             |
|      NCORE specifies how many cores store one orbital (NPAR=cpu/NCORE).     |
|      This setting can  greatly improve the performance of VASP for DFT.     |
|      The default,   NCORE=1            might be grossly inefficient         |
|      on modern multi-core architectures or massively parallel machines.     |
|      Do your own testing !!!!                                               |
|      Unfortunately you need to use the default for GW and RPA calculations. |
|      (for HF NCORE is supported but not extensively tested yet)             |
|                                                                             |
 ----------------------------------------------------------------------------- 

 POTCAR:   PAW_RPBE O 08Apr2002                   
   VRHFIN =O: s2p4                                                              
   LEXCH  = PE                                                                  
   EATOM  =   432.3788 eV,   31.7789 Ry                                         
                                                                                
   TITEL  = PAW_RPBE O 08Apr2002                                                
   LULTRA =        F    use ultrasoft PP ?                                      
   IUNSCR =        0    unscreen: 0-lin 1-nonlin 2-no                           
   RPACOR =     .000    partial core radius                                     
   POMASS =   16.000; ZVAL   =    6.000    mass and valenz                      
   RCORE  =    1.520    outmost cutoff radius                                   
   RWIGS  =    1.550; RWIGS  =     .820    wigner-seitz radius (au A)           
   ENMAX  =  400.000; ENMIN  =  300.000 eV                                      
   ICORE  =        2    local potential                                         
   LCOR   =        T    correct aug charges                                     
   LPAW   =        T    paw PP                                                  
   EAUG   =  605.392                                                            
   DEXC   =     .000                                                            
   RMAX   =    2.264    core radius for proj-oper                               
   RAUG   =    1.300    factor for augmentation sphere                          
   RDEP   =    1.550    radius for radial grids                                 
   QCUT   =   -5.520; QGAM   =   11.041    optimization parameters              
                                                                                
   Description                                                                  
     l     E      TYP  RCUT    TYP  RCUT                                        
     0   .000     23  1.200                                                     
     0  -.700     23  1.200                                                     
     1   .000     23  1.520                                                     
     1   .600     23  1.520                                                     
     2   .000      7  1.500                                                     
  local pseudopotential read in
  atomic valenz-charges read in
  non local Contribution for L=           0  read in
    real space projection operators read in
  non local Contribution for L=           0  read in
    real space projection operators read in
  non local Contribution for L=           1  read in
    real space projection operators read in
  non local Contribution for L=           1  read in
    real space projection operators read in
    PAW grid and wavefunctions read in
 
   number of l-projection  operators is LMAX  =           4
   number of lm-projection operators is LMMAX =           8
 
 POTCAR:   PAW_RPBE H 15Jun2001                   
   VRHFIN =H: ultrasoft test                                                    
   LEXCH  = PE                                                                  
   EATOM  =    12.4884 eV,     .9179 Ry                                         
                                                                                
   TITEL  = PAW_RPBE H 15Jun2001                                                
   LULTRA =        F    use ultrasoft PP ?                                      
   IUNSCR =        0    unscreen: 0-lin 1-nonlin 2-no                           
   RPACOR =     .000    partial core radius                                     
   POMASS =    1.000; ZVAL   =    1.000    mass and valenz                      
   RCORE  =    1.100    outmost cutoff radius                                   
   RWIGS  =     .700; RWIGS  =     .370    wigner-seitz radius (au A)           
   ENMAX  =  250.000; ENMIN  =  200.000 eV                                      
   RCLOC  =     .701    cutoff for local pot                                    
   LCOR   =        T    correct aug charges                                     
   LPAW   =        T    paw PP                                                  
   EAUG   =  400.000                                                            
   RMAX   =    2.174    core radius for proj-oper                               
   RAUG   =    1.200    factor for augmentation sphere                          
   RDEP   =    1.112    radius for radial grids                                 
   QCUT   =   -5.749; QGAM   =   11.498    optimization parameters              
                                                                                
   Description                                                                  
     l     E      TYP  RCUT    TYP  RCUT                                        
     0   .000     23  1.100                                                     
     0   .500     23  1.100                                                     
     1  -.300     23  1.100                                                     
  local pseudopotential read in
  atomic valenz-charges read in
  non local Contribution for L=           0  read in
    real space projection operators read in
  non local Contribution for L=           0  read in
    real space projection operators read in
  non local Contribution for L=           1  read in
    real space projection operators read in
    PAW grid and wavefunctions read in
 
   number of l-projection  operators is LMAX  =           3
   number of lm-projection operators is LMMAX =           5
 
 PAW_RPBE O 08Apr2002                   :
 energy of atom  1       EATOM= -432.3788
 kinetic energy error for atom=    0.1156 (will be added to EATOM!!)
 PAW_RPBE H 15Jun2001                   :
 energy of atom  2       EATOM=  -12.4884
 kinetic energy error for atom=    0.0098 (will be added to EATOM!!)
 
 
 POSCAR: H2O _2                                  
  positions in cartesian coordinates
  No initial velocities read in
 exchange correlation table for  LEXCH =        8
   RHO(1)=    0.500       N(1)  =     2000
   RHO(2)=  100.500       N(2)  =     4000
 


--------------------------------------------------------------------------------------------------------


 ion  position               nearest neighbor table
   1  0.000  0.000  0.000-   2 0.97   3 0.97
   2  0.075  0.904  0.000-   1 0.97
   3  0.075  0.096  0.000-   1 0.97
 
  LATTYP: Found a simple cubic cell.
 ALAT       =     8.0000000000
  
  Lattice vectors:
  
 A1 = (   8.0000000000,   0.0000000000,   0.0000000000)
 A2 = (   0.0000000000,   8.0000000000,   0.0000000000)
 A3 = (   0.0000000000,   0.0000000000,   8.0000000000)


Analysis of symmetry for initial positions (statically):
=====================================================================
 Subroutine PRICEL returns:
 Original cell was already a primitive cell.
 

 Routine SETGRP: Setting up the symmetry group for a 
 simple cubic supercell.


 Subroutine GETGRP returns: Found  4 space group operations
 (whereof  4 operations were pure point group operations)
 out of a pool of 48 trial point group operations.


The static configuration has the point symmetry C_2v.


Analysis of symmetry for dynamics (positions and initial velocities):
=====================================================================
 Subroutine PRICEL returns:
 Original cell was already a primitive cell.
 

 Routine SETGRP: Setting up the symmetry group for a 
 simple cubic supercell.


 Subroutine GETGRP returns: Found  4 space group operations
 (whereof  4 operations were pure point group operations)
 out of a pool of 48 trial point group operations.


The dynamic configuration has the point symmetry C_2v.


 Subroutine INISYM returns: Found  4 space group operations
 (whereof  4 operations are pure point group operations),
 and found     1 'primitive' translations

 
 
 KPOINTS: Gamma-point only                        

Automatic generation of k-mesh.
Space group operators:
 irot       det(A)        alpha          n_x          n_y          n_z        tau_x        tau_y        tau_z
    1     1.000000     0.000000     1.000000     0.000000     0.000000     0.000000     0.000000     0.000000
    2    -1.000000   180.000000     0.000000     0.000000     1.000000     0.000000     0.000000     0.000000
    3     1.000000   180.000000     1.000000     0.000000     0.000000     0.000000     0.000000     0.000000
    4    -1.000000   180.000000     0.000000     1.000000     0.000000     0.000000     0.000000     0.000000
 
 Subroutine IBZKPT returns following result:
 ===========================================
 
 Found      1 irreducible k-points:
 
 Following reciprocal coordinates:
            Coordinates               Weight
  0.000000  0.000000  0.000000      1.000000
 
 Following cartesian coordinates:
            Coordinates               Weight
  0.000000  0.000000  0.000000      1.000000
 
 
 Subroutine IBZKPT_HF returns following result:
 ==============================================
 
 Found      1 k-points in 1st BZ
 the following      1 k-points will be used (e.g. in the exchange kernel)
 Following reciprocal coordinates:   # in IRBZ
  0.000000  0.000000  0.000000    1.00000000   1 t-inv F


--------------------------------------------------------------------------------------------------------




 Dimension of arrays:
   k-points           NKPTS =      1   k-points in BZ     NKDIM =      1   number of bands    NBANDS=    128
   number of dos      NEDOS =    301   number of ions     NIONS =      3
   non local maximal  LDIM  =      4   non local SUM 2l+1 LMDIM =      8
   total plane-waves  NPLWV = 157464
   max r-space proj   IRMAX =      1   max aug-charges    IRDMAX=   4189
   dimension x,y,z NGX =    54 NGY =   54 NGZ =   54
   dimension x,y,z NGXF=   108 NGYF=  108 NGZF=  108
   support grid    NGXF=   108 NGYF=  108 NGZF=  108
   ions per type =               1   2
   NGX,Y,Z   is equivalent  to a cutoff of  11.22, 11.22, 11.22 a.u.
   NGXF,Y,Z  is equivalent  to a cutoff of  22.44, 22.44, 22.44 a.u.

 SYSTEM =  H2O vibration                           
 POSCAR =  H2O _2                                  

 Startparameter for this run:
   NWRITE =      2    write-flag & timer
   PREC   = a         normal or accurate (medium, high low for compatibility)
   ISTART =      0    job   : 0-new  1-cont  2-samecut
   ICHARG =      2    charge: 1-file 2-atom 10-const
   ISPIN  =      1    spin polarized calculation?
   LNONCOLLINEAR =      F non collinear calculations
   LSORBIT =      F    spin-orbit coupling
   INIWAV =      1    electr: 0-lowe 1-rand  2-diag
   LASPH  =      F    aspherical Exc in radial PAW
   METAGGA=      F    non-selfconsistent MetaGGA calc.

 Electronic Relaxation 1
   ENCUT  =  400.0 eV  29.40 Ry    5.42 a.u.  13.05 13.05 13.05*2*pi/ulx,y,z
   ENINI  =  400.0     initial cutoff
   ENAUG  =  605.4 eV  augmentation charge cutoff
   NELM   =     60;   NELMIN=  2; NELMDL= -5     # of ELM steps 
   EDIFF  = 0.1E-07   stopping-criterion for ELM
   LREAL  =      F    real-space projection
   NLSPLINE    = F    spline interpolate recip. space projectors
   LCOMPAT=      F    compatible to vasp.4.4
   GGA_COMPAT  = T    GGA compatible to vasp.4.4-vasp.4.6
   LMAXPAW     = -100 max onsite density
   LMAXMIX     =    2 max onsite mixed and CHGCAR
   VOSKOWN=      0    Vosko Wilk Nusair interpolation
   ROPT   =    0.00000   0.00000
 Ionic relaxation
   EDIFFG = 0.1E-06   stopping-criterion for IOM
   NSW    =     73    number of steps for IOM
   NBLOCK =      1;   KBLOCK =     73    inner block; outer block 
   IBRION =      6    ionic relax: 0-MD 1-quasi-New 2-CG
   NFREE  =      2    steps in history (QN), initial steepest desc. (CG)
   ISIF   =      2    stress and relaxation
   IWAVPR =     11    prediction:  0-non 1-charg 2-wave 3-comb
   ISYM   =      2    0-nonsym 1-usesym 2-fastsym
   LCORR  =      T    Harris-Foulkes like correction to forces

   POTIM  = 0.0150    time-step for ionic-motion
   TEIN   =    0.0    initial temperature
   TEBEG  =    0.0;   TEEND  =   0.0 temperature during run
   SMASS  =  -3.00    Nose mass-parameter (am)
   estimated Nose-frequenzy (Omega)   =  0.10E-29 period in steps =****** mass=  -0.146E-26a.u.
   SCALEE = 1.0000    scale energy and forces
   NPACO  =    256;   APACO  = 16.0  distance and # of slots for P.C.
   PSTRESS=    0.0 pullay stress

  Mass of Ions in am
   POMASS =  16.00  1.00
  Ionic Valenz
   ZVAL   =   6.00  1.00
  Atomic Wigner-Seitz radii
   RWIGS  =  -1.00 -1.00
  virtual crystal weights 
   VCA    =   1.00  1.00
   NELECT =       8.0000    total number of electrons
   NUPDOWN=      -1.0000    fix difference up-down

 DOS related values:
   EMIN   =  10.00;   EMAX   =-10.00  energy-range for DOS
   EFERMI =   0.00
   ISMEAR =     0;   SIGMA  =   0.20  broadening in eV -4-tet -1-fermi 0-gaus

 Electronic relaxation 2 (details)
   IALGO  =     38    algorithm
   LDIAG  =      T    sub-space diagonalisation (order eigenvalues)
   LSUBROT=      F    optimize rotation matrix (better conditioning)
   TURBO    =      0    0=normal 1=particle mesh
   IRESTART =      0    0=no restart 2=restart with 2 vectors
   NREBOOT  =      0    no. of reboots
   NMIN     =      0    reboot dimension
   EREF     =   0.00    reference energy to select bands
   IMIX   =      4    mixing-type and parameters
     AMIX     =   0.40;   BMIX     =  1.00
     AMIX_MAG =   1.60;   BMIX_MAG =  1.00
     AMIN     =   0.10
     WC   =   100.;   INIMIX=   1;  MIXPRE=   1;  MAXMIX= -45

 Intra band minimization:
   WEIMIN = 0.0010     energy-eigenvalue tresh-hold
   EBREAK =  0.20E-10  absolut break condition
   DEPER  =   0.30     relativ break condition  

   TIME   =   0.40     timestep for ELM

  volume/ion in A,a.u.               =     170.67      1151.72
  Fermi-wavevector in a.u.,A,eV,Ry     =   0.409275  0.773417  2.279054  0.167506
  Thomas-Fermi vector in A             =   1.364147
 
 Write flags
   LWAVE        =      T    write WAVECAR
   LDOWNSAMPLE  =      F    k-point downsampling of WAVECAR
   LCHARG       =      T    write CHGCAR
   LVTOT        =      F    write LOCPOT, total local potential
   LVHAR        =      F    write LOCPOT, Hartree potential only
   LELF         =      F    write electronic localiz. function (ELF)
   LORBIT       =      0    0 simple, 1 ext, 2 COOP (PROOUT), +10 PAW based schemes


 Dipole corrections
   LMONO  =      F    monopole corrections only (constant potential shift)
   LDIPOL =      F    correct potential (dipole corrections)
   IDIPOL =      0    1-x, 2-y, 3-z, 4-all directions 
   EPSILON=  1.0000000 bulk dielectric constant

 Exchange correlation treatment:
   GGA     =    --    GGA type
   LEXCH   =     8    internal setting for exchange type
   VOSKOWN=      0    Vosko Wilk Nusair interpolation
   LHFCALC =     F    Hartree Fock is set to
   LHFONE  =     F    Hartree Fock one center treatment
   AEXX    =    0.0000 exact exchange contribution

 Linear response parameters
   LEPSILON=     F    determine dielectric tensor
   LRPA    =     F    only Hartree local field effects (RPA)
   LNABLA  =     F    use nabla operator in PAW spheres
   LVEL    =     F    velocity operator in full k-point grid
   LINTERFAST=   F  fast interpolation
   KINTER  =     0    interpolate to denser k-point grid
   CSHIFT  =0.1000    complex shift for real part using Kramers Kronig
   OMEGAMAX=  -1.0    maximum frequency
   DEG_THRESHOLD= 0.2000000E-02 threshold for treating states as degnerate
   RTIME   =   -0.100 relaxation time in fs
  (WPLASMAI=    0.000 imaginary part of plasma frequency in eV, 0.658/RTIME)
   DFIELD  = 0.0000000 0.0000000 0.0000000 field for delta impulse in time
 
 Orbital magnetization related:
   ORBITALMAG=     F  switch on orbital magnetization
   LCHIMAG   =     F  perturbation theory with respect to B field
   DQ        =  0.001000  dq finite difference perturbation B field
   LLRAUG    =     F  two centre corrections for induced B field



--------------------------------------------------------------------------------------------------------


 finite differences with symmetry
 charge density and potential will be updated during run
 non-spin polarized calculation
 Variant of blocked Davidson
 Davidson routine will perform the subspace rotation
 perform sub-space diagonalisation
    after iterative eigenvector-optimisation
 modified Broyden-mixing scheme, WC =      100.0
 initial mixing is a Kerker type mixing with AMIX =  0.4000 and BMIX =      1.0000
 Hartree-type preconditioning will be used
 using additional bands          124
 reciprocal scheme for non local part
 calculate Harris-corrections to forces 
   (improved forces if not selfconsistent)
 use gradient corrections 
 use of overlap-Matrix (Vanderbilt PP)
 Gauss-broadening in eV      SIGMA  =   0.20


--------------------------------------------------------------------------------------------------------


  energy-cutoff  :      400.00
  volume of cell :      512.00
      direct lattice vectors                 reciprocal lattice vectors
     8.000000000  0.000000000  0.000000000     0.125000000  0.000000000  0.000000000
     0.000000000  8.000000000  0.000000000     0.000000000  0.125000000  0.000000000
     0.000000000  0.000000000  8.000000000     0.000000000  0.000000000  0.125000000

  length of vectors
     8.000000000  8.000000000  8.000000000     0.125000000  0.125000000  0.125000000


 
 k-points in units of 2pi/SCALE and weight: Gamma-point only                        
   0.00000000  0.00000000  0.00000000       1.000
 
 k-points in reciprocal lattice and weights: Gamma-point only                        
   0.00000000  0.00000000  0.00000000       1.000
 
 position of ions in fractional coordinates (direct lattice) 
   0.00000000  0.00000000  0.00000000
   0.07451015  0.90403665  0.00000000
   0.07451015  0.09596335  0.00000000
 
 position of ions in cartesian coordinates  (Angst):
   0.00000000  0.00000000  0.00000000
   0.59608120  7.23229320  0.00000000
   0.59608120  0.76770680  0.00000000
 


--------------------------------------------------------------------------------------------------------


 k-point  1 :   0.0000 0.0000 0.0000  plane waves:    9315

 maximum and minimum number of plane-waves per node :      9315     9315

 maximum number of plane-waves:      9315
 maximum index in each direction: 
   IXMAX=   13   IYMAX=   13   IZMAX=   13
   IXMIN=  -13   IYMIN=  -13   IZMIN=  -13


 serial   3D FFT for wavefunctions
 parallel 3D FFT for charge:
    minimum data exchange during FFTs selected (reduces bandwidth)


 total amount of memory used by VASP MPI-rank0    39891. kBytes
=======================================================================

   base      :      30000. kBytes
   nonl-proj :       1644. kBytes
   fftplans  :       1080. kBytes
   grid      :       7007. kBytes
   one-center:          9. kBytes
   wavefun   :        151. kBytes
 
     INWAV:  cpu time    0.0000: real time    0.0000
 Broyden mixing: mesh for mixing (old mesh)
   NGX = 27   NGY = 27   NGZ = 27
  (NGX  =108   NGY  =108   NGZ  =108)
  gives a total of  19683 points

 initial charge density was supplied:
 charge density of overlapping atoms calculated
 number of electron       8.0000000 magnetization 
 keeping initial charge density in first step


--------------------------------------------------------------------------------------------------------


 Maximum index for augmentation-charges          293 (set IRDMAX)


--------------------------------------------------------------------------------------------------------


 First call to EWALD:  gamma=   0.222
 Maximum number of real-space cells 3x 3x 3
 Maximum number of reciprocal cells 3x 3x 3

    FEWALD:  cpu time    0.0046: real time    0.0046


--------------------------------------- Iteration      1(   1)  ---------------------------------------


    POTLOK:  cpu time    4.2251: real time    4.4764
    SETDIJ:  cpu time    0.0037: real time    0.0038
     EDDAV:  cpu time   14.0357: real time   14.8238
       DOS:  cpu time    0.0037: real time    0.0040
    --------------------------------------------
      LOOP:  cpu time   18.2682: real time   19.3081

 eigenvalue-minimisations  :   256
 total energy-change (2. order) :-0.1903270E+01  (-0.2726502E+03)
 number of electron       8.0000000 magnetization 
 augmentation part        8.0000000 magnetization 

 Free energy of the ion-electron system (eV)
  ---------------------------------------------------
  alpha Z        PSCENC =         0.43793512
  Ewald energy   TEWEN  =        24.54851968
  -Hartree energ DENC   =      -385.76897518
  -exchange      EXHF   =         0.00000000
  -V(xc)+E(xc)   XCENC  =        32.23254366
  PAW double counting   =       247.56105404     -249.42875511
  entropy T*S    EENTRO =        -0.00000000
  eigenvalues    EBANDS =      -128.70605406
  atomic energy  EATOM  =       457.22046137
  Solvation  Ediel_sol  =         0.00000000
  ---------------------------------------------------
  free energy    TOTEN  =        -1.90327049 eV

  energy without entropy =       -1.90327049  energy(sigma->0) =       -1.90327049


--------------------------------------------------------------------------------------------------------




--------------------------------------- Iteration      1(   2)  ---------------------------------------


     EDDAV:  cpu time   17.6461: real time   18.3860
       DOS:  cpu time    0.0007: real time    0.0007
    --------------------------------------------
      LOOP:  cpu time   17.6467: real time   18.3866

 eigenvalue-minimisations  :   384
 total energy-change (2. order) :-0.1434109E+02  (-0.1434109E+02)
 number of electron       8.0000000 magnetization 
 augmentation part        8.0000000 magnetization 

 Free energy of the ion-electron system (eV)
  ---------------------------------------------------
  alpha Z        PSCENC =         0.43793512
  Ewald energy   TEWEN  =        24.54851968
  -Hartree energ DENC   =      -385.76897518
  -exchange      EXHF   =         0.00000000
  -V(xc)+E(xc)   XCENC  =        32.23254366
  PAW double counting   =       247.56105404     -249.42875511
  entropy T*S    EENTRO =        -0.00000000
  eigenvalues    EBANDS =      -143.04714084
  atomic energy  EATOM  =       457.22046137
  Solvation  Ediel_sol  =         0.00000000
  ---------------------------------------------------
  free energy    TOTEN  =       -16.24435727 eV

  energy without entropy =      -16.24435727  energy(sigma->0) =      -16.24435727


--------------------------------------------------------------------------------------------------------




--------------------------------------- Iteration      1(   3)  ---------------------------------------


     EDDAV:  cpu time    1.6789: real time    1.8616
       DOS:  cpu time    0.0006: real time    0.0006
    --------------------------------------------
      LOOP:  cpu time    1.6795: real time    1.8622

 eigenvalue-minimisations  :   256
 total energy-change (2. order) :-0.5414561E-02  (-0.5414561E-02)
 number of electron       8.0000000 magnetization 
 augmentation part        8.0000000 magnetization 

 Free energy of the ion-electron system (eV)
  ---------------------------------------------------
  alpha Z        PSCENC =         0.43793512
  Ewald energy   TEWEN  =        24.54851968
  -Hartree energ DENC   =      -385.76897518
  -exchange      EXHF   =         0.00000000
  -V(xc)+E(xc)   XCENC  =        32.23254366
  PAW double counting   =       247.56105404     -249.42875511
  entropy T*S    EENTRO =        -0.00000000
  eigenvalues    EBANDS =      -143.05255540
  atomic energy  EATOM  =       457.22046137
  Solvation  Ediel_sol  =         0.00000000
  ---------------------------------------------------
  free energy    TOTEN  =       -16.24977183 eV

  energy without entropy =      -16.24977183  energy(sigma->0) =      -16.24977183


--------------------------------------------------------------------------------------------------------




--------------------------------------- Iteration      1(   4)  ---------------------------------------


     EDDAV:  cpu time    4.8905: real time    4.9724
       DOS:  cpu time    0.0004: real time    0.0004
    --------------------------------------------
      LOOP:  cpu time    4.8908: real time    4.9728

 eigenvalue-minimisations  :   512
 total energy-change (2. order) :-0.5554011E-05  (-0.5554010E-05)
 number of electron       8.0000000 magnetization 
 augmentation part        8.0000000 magnetization 

 Free energy of the ion-electron system (eV)
  ---------------------------------------------------
  alpha Z        PSCENC =         0.43793512
  Ewald energy   TEWEN  =        24.54851968
  -Hartree energ DENC   =      -385.76897518
  -exchange      EXHF   =         0.00000000
  -V(xc)+E(xc)   XCENC  =        32.23254366
  PAW double counting   =       247.56105404     -249.42875511
  entropy T*S    EENTRO =        -0.00000000
  eigenvalues    EBANDS =      -143.05256096
  atomic energy  EATOM  =       457.22046137
  Solvation  Ediel_sol  =         0.00000000
  ---------------------------------------------------
  free energy    TOTEN  =       -16.24977739 eV

  energy without entropy =      -16.24977739  energy(sigma->0) =      -16.24977739


--------------------------------------------------------------------------------------------------------




--------------------------------------- Iteration      1(   5)  ---------------------------------------


     EDDAV:  cpu time    1.0164: real time    1.0295
       DOS:  cpu time    0.0004: real time    0.0004
    CHARGE:  cpu time    0.0512: real time    0.0885
    MIXING:  cpu time    0.0088: real time    0.0117
    --------------------------------------------
      LOOP:  cpu time    1.0768: real time    1.1301

 eigenvalue-minimisations  :   256
 total energy-change (2. order) :-0.7389644E-11  (-0.5698553E-11)
 number of electron       7.9999967 magnetization 
 augmentation part        0.8297670 magnetization 

 Broyden mixing:
  rms(total) = 0.76893E+00    rms(broyden)= 0.76736E+00
  rms(prec ) = 0.11747E+01
  weight for this iteration     100.00

 Free energy of the ion-electron system (eV)
  ---------------------------------------------------
  alpha Z        PSCENC =         0.43793512
  Ewald energy   TEWEN  =        24.54851968
  -Hartree energ DENC   =      -385.76897518
  -exchange      EXHF   =         0.00000000
  -V(xc)+E(xc)   XCENC  =        32.23254366
  PAW double counting   =       247.56105404     -249.42875511
  entropy T*S    EENTRO =        -0.00000000
  eigenvalues    EBANDS =      -143.05256096
  atomic energy  EATOM  =       457.22046137
  Solvation  Ediel_sol  =         0.00000000
  ---------------------------------------------------
  free energy    TOTEN  =       -16.24977739 eV

  energy without entropy =      -16.24977739  energy(sigma->0) =      -16.24977739


--------------------------------------------------------------------------------------------------------




--------------------------------------- Iteration      1(   6)  ---------------------------------------


    POTLOK:  cpu time    0.2387: real time    0.2408
    SETDIJ:  cpu time    0.0011: real time    0.0011
     EDDAV:  cpu time    0.4142: real time    0.4171
       DOS:  cpu time    0.0004: real time    0.0004
    CHARGE:  cpu time    0.0442: real time    0.0444
    MIXING:  cpu time    0.0025: real time    0.1654
    --------------------------------------------
      LOOP:  cpu time    0.7009: real time    0.8692

 eigenvalue-minimisations  :   256
 total energy-change (2. order) : 0.1854520E+01  (-0.9345989E+00)
 number of electron       7.9999973 magnetization 
 augmentation part        0.6963988 magnetization 

 Broyden mixing:
  rms(total) = 0.30741E+00    rms(broyden)= 0.30698E+00
  rms(prec ) = 0.40133E+00
  weight for this iteration     100.00

 eigenvalues of (default mixing * dielectric matrix)
  average eigenvalue GAMMA=   0.9076
  0.9076

 Free energy of the ion-electron system (eV)
  ---------------------------------------------------
  alpha Z        PSCENC =         0.43793512
  Ewald energy   TEWEN  =        24.54851968
  -Hartree energ DENC   =      -409.64463630
  -exchange      EXHF   =         0.00000000
  -V(xc)+E(xc)   XCENC  =        33.56624762
  PAW double counting   =       302.31028624     -304.51477522
  entropy T*S    EENTRO =        -0.00000000
  eigenvalues    EBANDS =      -118.31929579
  atomic energy  EATOM  =       457.22046137
  Solvation  Ediel_sol  =         0.00000000
  ---------------------------------------------------
  free energy    TOTEN  =       -14.39525727 eV

  energy without entropy =      -14.39525727  energy(sigma->0) =      -14.39525727


--------------------------------------------------------------------------------------------------------




--------------------------------------- Iteration      1(   7)  ---------------------------------------


    POTLOK:  cpu time    0.3043: real time    0.3072
    SETDIJ:  cpu time    0.0010: real time    0.0010
     EDDAV:  cpu time    1.6858: real time    1.6971
       DOS:  cpu time    0.0004: real time    0.0004
    CHARGE:  cpu time    0.0444: real time    0.0447
    MIXING:  cpu time    0.0008: real time    0.0244
    --------------------------------------------
      LOOP:  cpu time    2.0366: real time    2.0749

 eigenvalue-minimisations  :   512
 total energy-change (2. order) : 0.1113688E+00  (-0.3766659E-02)
 number of electron       7.9999973 magnetization 
 augmentation part        0.6926663 magnetization 

 Broyden mixing:
  rms(total) = 0.18724E+00    rms(broyden)= 0.18722E+00
  rms(prec ) = 0.25255E+00
  weight for this iteration     100.00

 eigenvalues of (default mixing * dielectric matrix)
  average eigenvalue GAMMA=   1.7223
  1.0253  2.4193

 Free energy of the ion-electron system (eV)
  ---------------------------------------------------
  alpha Z        PSCENC =         0.43793512
  Ewald energy   TEWEN  =        24.54851968
  -Hartree energ DENC   =      -413.13463005
  -exchange      EXHF   =         0.00000000
  -V(xc)+E(xc)   XCENC  =        33.74786279
  PAW double counting   =       314.73265707     -316.90426290
  entropy T*S    EENTRO =        -0.00000000
  eigenvalues    EBANDS =      -114.93243157
  atomic energy  EATOM  =       457.22046137
  Solvation  Ediel_sol  =         0.00000000
  ---------------------------------------------------
  free energy    TOTEN  =       -14.28388849 eV

  energy without entropy =      -14.28388849  energy(sigma->0) =      -14.28388849


--------------------------------------------------------------------------------------------------------




--------------------------------------- Iteration      1(   8)  ---------------------------------------


    POTLOK:  cpu time    0.2373: real time    0.2670
    SETDIJ:  cpu time    0.0010: real time    0.0010
     EDDAV:  cpu time    0.9611: real time    0.9669
       DOS:  cpu time    0.0004: real time    0.0004
    CHARGE:  cpu time    0.0437: real time    0.0440
    MIXING:  cpu time    0.0008: real time    0.0168
    --------------------------------------------
      LOOP:  cpu time    1.2443: real time    1.2961

 eigenvalue-minimisations  :   384
 total energy-change (2. order) : 0.8159463E-01  (-0.7575485E-02)
 number of electron       7.9999973 magnetization 
 augmentation part        0.6892813 magnetization 

 Broyden mixing:
  rms(total) = 0.20472E-01    rms(broyden)= 0.20459E-01
  rms(prec ) = 0.50805E-01
  weight for this iteration     100.00

 eigenvalues of (default mixing * dielectric matrix)
  average eigenvalue GAMMA=   1.9413
  1.0147  2.4046  2.4046

 Free energy of the ion-electron system (eV)
  ---------------------------------------------------
  alpha Z        PSCENC =         0.43793512
  Ewald energy   TEWEN  =        24.54851968
  -Hartree energ DENC   =      -418.76108339
  -exchange      EXHF   =         0.00000000
  -V(xc)+E(xc)   XCENC  =        34.06140376
  PAW double counting   =       333.02865772     -335.14586346
  entropy T*S    EENTRO =        -0.00000000
  eigenvalues    EBANDS =      -109.59232466
  atomic energy  EATOM  =       457.22046137
  Solvation  Ediel_sol  =         0.00000000
  ---------------------------------------------------
  free energy    TOTEN  =       -14.20229386 eV

  energy without entropy =      -14.20229386  energy(sigma->0) =      -14.20229386


--------------------------------------------------------------------------------------------------------




--------------------------------------- Iteration      1(   9)  ---------------------------------------


    POTLOK:  cpu time    0.2547: real time    0.2643
    SETDIJ:  cpu time    0.0011: real time    0.0011
     EDDAV:  cpu time    0.8397: real time    0.8451
       DOS:  cpu time    0.0004: real time    0.0004
    CHARGE:  cpu time    0.0445: real time    0.0449
    MIXING:  cpu time    0.0006: real time    0.0006
    --------------------------------------------
      LOOP:  cpu time    1.1410: real time    1.1564

 eigenvalue-minimisations  :   384
 total energy-change (2. order) :-0.9931072E-02  (-0.7484551E-03)
 number of electron       7.9999974 magnetization 
 augmentation part        0.6872146 magnetization 

 Broyden mixing:
  rms(total) = 0.11386E-01    rms(broyden)= 0.11383E-01
  rms(prec ) = 0.20929E-01
  weight for this iteration     100.00

 eigenvalues of (default mixing * dielectric matrix)
  average eigenvalue GAMMA=   1.9083
  0.9998  0.9998  3.1777  2.4558

 Free energy of the ion-electron system (eV)
  ---------------------------------------------------
  alpha Z        PSCENC =         0.43793512
  Ewald energy   TEWEN  =        24.54851968
  -Hartree energ DENC   =      -419.80240354
  -exchange      EXHF   =         0.00000000
  -V(xc)+E(xc)   XCENC  =        34.07611365
  PAW double counting   =       327.93574552     -330.04910740
  entropy T*S    EENTRO =        -0.00000000
  eigenvalues    EBANDS =      -108.57948934
  atomic energy  EATOM  =       457.22046137
  Solvation  Ediel_sol  =         0.00000000
  ---------------------------------------------------
  free energy    TOTEN  =       -14.21222493 eV

  energy without entropy =      -14.21222493  energy(sigma->0) =      -14.21222493


--------------------------------------------------------------------------------------------------------




--------------------------------------- Iteration      1(  10)  ---------------------------------------


    POTLOK:  cpu time    0.2507: real time    0.3623
    SETDIJ:  cpu time    0.0011: real time    0.0011
     EDDAV:  cpu time    1.5304: real time    1.5387
       DOS:  cpu time    0.0004: real time    0.0004
    CHARGE:  cpu time    0.0452: real time    0.0454
    MIXING:  cpu time    0.0006: real time    0.0006
    --------------------------------------------
      LOOP:  cpu time    1.8283: real time    1.9486

 eigenvalue-minimisations  :   512
 total energy-change (2. order) :-0.3407809E-02  (-0.8782912E-04)
 number of electron       7.9999974 magnetization 
 augmentation part        0.6879803 magnetization 

 Broyden mixing:
  rms(total) = 0.49090E-02    rms(broyden)= 0.49076E-02
  rms(prec ) = 0.12485E-01
  weight for this iteration     100.00

 eigenvalues of (default mixing * dielectric matrix)
  average eigenvalue GAMMA=   2.2052
  3.9617  1.0016  1.0016  2.5307  2.5307

 Free energy of the ion-electron system (eV)
  ---------------------------------------------------
  alpha Z        PSCENC =         0.43793512
  Ewald energy   TEWEN  =        24.54851968
  -Hartree energ DENC   =      -420.01463875
  -exchange      EXHF   =         0.00000000
  -V(xc)+E(xc)   XCENC  =        34.08138337
  PAW double counting   =       328.30024589     -330.40872750
  entropy T*S    EENTRO =        -0.00000000
  eigenvalues    EBANDS =      -108.38081192
  atomic energy  EATOM  =       457.22046137
  Solvation  Ediel_sol  =         0.00000000
  ---------------------------------------------------
  free energy    TOTEN  =       -14.21563274 eV

  energy without entropy =      -14.21563274  energy(sigma->0) =      -14.21563274


--------------------------------------------------------------------------------------------------------




--------------------------------------- Iteration      1(  11)  ---------------------------------------


    POTLOK:  cpu time    0.2147: real time    0.3530
    SETDIJ:  cpu time    0.0010: real time    0.0010
     EDDAV:  cpu time    0.8547: real time    0.8600
       DOS:  cpu time    0.0004: real time    0.0004
    CHARGE:  cpu time    0.0460: real time    0.0463
    MIXING:  cpu time    0.0007: real time    0.0007
    --------------------------------------------
      LOOP:  cpu time    1.1175: real time    1.2614

 eigenvalue-minimisations  :   384
 total energy-change (2. order) :-0.7365549E-02  (-0.2290526E-03)
 number of electron       7.9999974 magnetization 
 augmentation part        0.6873904 magnetization 

 Broyden mixing:
  rms(total) = 0.23356E-02    rms(broyden)= 0.23335E-02
  rms(prec ) = 0.45201E-02
  weight for this iteration     100.00

 eigenvalues of (default mixing * dielectric matrix)
  average eigenvalue GAMMA=   2.3737
  4.9427  3.2207  1.0070  1.0070  2.2806  1.7839

 Free energy of the ion-electron system (eV)
  ---------------------------------------------------
  alpha Z        PSCENC =         0.43793512
  Ewald energy   TEWEN  =        24.54851968
  -Hartree energ DENC   =      -420.17971223
  -exchange      EXHF   =         0.00000000
  -V(xc)+E(xc)   XCENC  =        34.07944146
  PAW double counting   =       329.01788618     -331.12804663
  entropy T*S    EENTRO =        -0.00000000
  eigenvalues    EBANDS =      -108.21948324
  atomic energy  EATOM  =       457.22046137
  Solvation  Ediel_sol  =         0.00000000
  ---------------------------------------------------
  free energy    TOTEN  =       -14.22299829 eV

  energy without entropy =      -14.22299829  energy(sigma->0) =      -14.22299829


--------------------------------------------------------------------------------------------------------




--------------------------------------- Iteration      1(  12)  ---------------------------------------


    POTLOK:  cpu time    0.2816: real time    0.3344
    SETDIJ:  cpu time    0.0010: real time    0.0010
     EDDAV:  cpu time    1.5337: real time    1.5420
       DOS:  cpu time    0.0004: real time    0.0004
    CHARGE:  cpu time    0.0435: real time    0.0438
    MIXING:  cpu time    0.0006: real time    0.0006
    --------------------------------------------
      LOOP:  cpu time    1.8608: real time    1.9223

 eigenvalue-minimisations  :   512
 total energy-change (2. order) :-0.1571637E-02  (-0.4296041E-04)
 number of electron       7.9999974 magnetization 
 augmentation part        0.6881152 magnetization 

 Broyden mixing:
  rms(total) = 0.23716E-02    rms(broyden)= 0.23705E-02
  rms(prec ) = 0.39342E-02
  weight for this iteration     100.00

 eigenvalues of (default mixing * dielectric matrix)
  average eigenvalue GAMMA=   2.3863
  5.5846  3.1896  2.6490  2.2415  1.0694  0.9851  0.9851

 Free energy of the ion-electron system (eV)
  ---------------------------------------------------
  alpha Z        PSCENC =         0.43793512
  Ewald energy   TEWEN  =        24.54851968
  -Hartree energ DENC   =      -419.98686179
  -exchange      EXHF   =         0.00000000
  -V(xc)+E(xc)   XCENC  =        34.06696343
  PAW double counting   =       328.72630125     -330.83505145
  entropy T*S    EENTRO =        -0.00000000
  eigenvalues    EBANDS =      -108.40283753
  atomic energy  EATOM  =       457.22046137
  Solvation  Ediel_sol  =         0.00000000
  ---------------------------------------------------
  free energy    TOTEN  =       -14.22456992 eV

  energy without entropy =      -14.22456992  energy(sigma->0) =      -14.22456992


--------------------------------------------------------------------------------------------------------




--------------------------------------- Iteration      1(  13)  ---------------------------------------


    POTLOK:  cpu time    0.3111: real time    0.3210
    SETDIJ:  cpu time    0.0011: real time    0.0011
     EDDAV:  cpu time    1.5412: real time    1.5502
       DOS:  cpu time    0.0009: real time    0.0009
    CHARGE:  cpu time    0.0447: real time    0.0450
    MIXING:  cpu time    0.0006: real time    0.0006
    --------------------------------------------
      LOOP:  cpu time    1.8996: real time    1.9189

 eigenvalue-minimisations  :   512
 total energy-change (2. order) :-0.4496563E-03  (-0.2355584E-04)
 number of electron       7.9999974 magnetization 
 augmentation part        0.6874937 magnetization 

 Broyden mixing:
  rms(total) = 0.79575E-03    rms(broyden)= 0.79370E-03
  rms(prec ) = 0.13360E-02
  weight for this iteration     100.00

 eigenvalues of (default mixing * dielectric matrix)
  average eigenvalue GAMMA=   2.5355
  6.2401  3.7546  2.8704  2.4314  2.0647  1.0025  1.0025  0.9178

 Free energy of the ion-electron system (eV)
  ---------------------------------------------------
  alpha Z        PSCENC =         0.43793512
  Ewald energy   TEWEN  =        24.54851968
  -Hartree energ DENC   =      -420.09952508
  -exchange      EXHF   =         0.00000000
  -V(xc)+E(xc)   XCENC  =        34.07305672
  PAW double counting   =       328.93456104     -331.04418804
  entropy T*S    EENTRO =        -0.00000000
  eigenvalues    EBANDS =      -108.29584040
  atomic energy  EATOM  =       457.22046137
  Solvation  Ediel_sol  =         0.00000000
  ---------------------------------------------------
  free energy    TOTEN  =       -14.22501958 eV

  energy without entropy =      -14.22501958  energy(sigma->0) =      -14.22501958


--------------------------------------------------------------------------------------------------------




--------------------------------------- Iteration      1(  14)  ---------------------------------------


    POTLOK:  cpu time    0.1863: real time    0.2504
    SETDIJ:  cpu time    0.0010: real time    0.0010
     EDDAV:  cpu time    0.8364: real time    0.8416
       DOS:  cpu time    0.0004: real time    0.0004
    CHARGE:  cpu time    0.0442: real time    0.0445
    MIXING:  cpu time    0.0007: real time    0.0007
    --------------------------------------------
      LOOP:  cpu time    1.0690: real time    1.1386

 eigenvalue-minimisations  :   384
 total energy-change (2. order) :-0.1519882E-03  (-0.2057965E-05)
 number of electron       7.9999974 magnetization 
 augmentation part        0.6876233 magnetization 

 Broyden mixing:
  rms(total) = 0.14794E-03    rms(broyden)= 0.14787E-03
  rms(prec ) = 0.25096E-03
  weight for this iteration     100.00

 eigenvalues of (default mixing * dielectric matrix)
  average eigenvalue GAMMA=   2.4955
  6.3631  4.1230  2.9253  2.4400  2.3172  0.9995  0.9995  0.9302  1.3616

 Free energy of the ion-electron system (eV)
  ---------------------------------------------------
  alpha Z        PSCENC =         0.43793512
  Ewald energy   TEWEN  =        24.54851968
  -Hartree energ DENC   =      -420.05959401
  -exchange      EXHF   =         0.00000000
  -V(xc)+E(xc)   XCENC  =        34.07092034
  PAW double counting   =       328.82654947     -330.93595866
  entropy T*S    EENTRO =        -0.00000000
  eigenvalues    EBANDS =      -108.33400488
  atomic energy  EATOM  =       457.22046137
  Solvation  Ediel_sol  =         0.00000000
  ---------------------------------------------------
  free energy    TOTEN  =       -14.22517157 eV

  energy without entropy =      -14.22517157  energy(sigma->0) =      -14.22517157


--------------------------------------------------------------------------------------------------------




--------------------------------------- Iteration      1(  15)  ---------------------------------------


    POTLOK:  cpu time    0.1515: real time    0.2315
    SETDIJ:  cpu time    0.0011: real time    0.0011
     EDDAV:  cpu time    0.8275: real time    0.8325
       DOS:  cpu time    0.0004: real time    0.0004
    CHARGE:  cpu time    0.0436: real time    0.0439
    MIXING:  cpu time    0.0007: real time    0.0007
    --------------------------------------------
      LOOP:  cpu time    1.0247: real time    1.1101

 eigenvalue-minimisations  :   384
 total energy-change (2. order) :-0.2266831E-04  (-0.1525948E-06)
 number of electron       7.9999974 magnetization 
 augmentation part        0.6876409 magnetization 

 Broyden mixing:
  rms(total) = 0.51176E-04    rms(broyden)= 0.51086E-04
  rms(prec ) = 0.10674E-03
  weight for this iteration     100.00

 eigenvalues of (default mixing * dielectric matrix)
  average eigenvalue GAMMA=   2.4808
  6.3850  4.4035  3.0421  2.6342  2.4173  2.0201  1.0089  1.0089  0.9439  0.9439

 Free energy of the ion-electron system (eV)
  ---------------------------------------------------
  alpha Z        PSCENC =         0.43793512
  Ewald energy   TEWEN  =        24.54851968
  -Hartree energ DENC   =      -420.05672140
  -exchange      EXHF   =         0.00000000
  -V(xc)+E(xc)   XCENC  =        34.07083172
  PAW double counting   =       328.83517615     -330.94454261
  entropy T*S    EENTRO =        -0.00000000
  eigenvalues    EBANDS =      -108.33685428
  atomic energy  EATOM  =       457.22046137
  Solvation  Ediel_sol  =         0.00000000
  ---------------------------------------------------
  free energy    TOTEN  =       -14.22519424 eV

  energy without entropy =      -14.22519424  energy(sigma->0) =      -14.22519424


--------------------------------------------------------------------------------------------------------




--------------------------------------- Iteration      1(  16)  ---------------------------------------


    POTLOK:  cpu time    0.2180: real time    0.2490
    SETDIJ:  cpu time    0.0010: real time    0.0010
     EDDAV:  cpu time    0.8163: real time    0.8217
       DOS:  cpu time    0.0004: real time    0.0004
    CHARGE:  cpu time    0.0435: real time    0.0439
    MIXING:  cpu time    0.0008: real time    0.0059
    --------------------------------------------
      LOOP:  cpu time    1.0800: real time    1.1220

 eigenvalue-minimisations  :   384
 total energy-change (2. order) :-0.6924657E-05  (-0.6228329E-07)
 number of electron       7.9999974 magnetization 
 augmentation part        0.6876424 magnetization 

 Broyden mixing:
  rms(total) = 0.17534E-04    rms(broyden)= 0.17519E-04
  rms(prec ) = 0.43464E-04
  weight for this iteration     100.00

 eigenvalues of (default mixing * dielectric matrix)
  average eigenvalue GAMMA=   2.5246
  6.4556  4.4920  3.4414  2.8435  2.3525  2.3525  1.8973  1.0289  0.9845  0.9845
  0.9374

 Free energy of the ion-electron system (eV)
  ---------------------------------------------------
  alpha Z        PSCENC =         0.43793512
  Ewald energy   TEWEN  =        24.54851968
  -Hartree energ DENC   =      -420.05581643
  -exchange      EXHF   =         0.00000000
  -V(xc)+E(xc)   XCENC  =        34.07078755
  PAW double counting   =       328.84187737     -330.95125780
  entropy T*S    EENTRO =        -0.00000000
  eigenvalues    EBANDS =      -108.33770802
  atomic energy  EATOM  =       457.22046137
  Solvation  Ediel_sol  =         0.00000000
  ---------------------------------------------------
  free energy    TOTEN  =       -14.22520116 eV

  energy without entropy =      -14.22520116  energy(sigma->0) =      -14.22520116


--------------------------------------------------------------------------------------------------------




--------------------------------------- Iteration      1(  17)  ---------------------------------------


    POTLOK:  cpu time    0.3268: real time    0.3331
    SETDIJ:  cpu time    0.0010: real time    0.0010
     EDDAV:  cpu time    0.8176: real time    0.8227
       DOS:  cpu time    0.0004: real time    0.0004
    CHARGE:  cpu time    0.0434: real time    0.0438
    MIXING:  cpu time    0.0007: real time    0.0007
    --------------------------------------------
      LOOP:  cpu time    1.1899: real time    1.2016

 eigenvalue-minimisations  :   384
 total energy-change (2. order) :-0.2048578E-05  (-0.1341205E-07)
 number of electron       7.9999974 magnetization 
 augmentation part        0.6876418 magnetization 

 Broyden mixing:
  rms(total) = 0.71446E-05    rms(broyden)= 0.71410E-05
  rms(prec ) = 0.18023E-04
  weight for this iteration     100.00

 eigenvalues of (default mixing * dielectric matrix)
  average eigenvalue GAMMA=   2.4683
  6.4687  4.5594  3.7163  2.8156  2.5553  2.3242  1.9571  0.9387  0.9901  0.9901
  1.0375  1.2665

 Free energy of the ion-electron system (eV)
  ---------------------------------------------------
  alpha Z        PSCENC =         0.43793512
  Ewald energy   TEWEN  =        24.54851968
  -Hartree energ DENC   =      -420.05538897
  -exchange      EXHF   =         0.00000000
  -V(xc)+E(xc)   XCENC  =        34.07076884
  PAW double counting   =       328.84219776     -330.95158449
  entropy T*S    EENTRO =        -0.00000000
  eigenvalues    EBANDS =      -108.33811251
  atomic energy  EATOM  =       457.22046137
  Solvation  Ediel_sol  =         0.00000000
  ---------------------------------------------------
  free energy    TOTEN  =       -14.22520321 eV

  energy without entropy =      -14.22520321  energy(sigma->0) =      -14.22520321


--------------------------------------------------------------------------------------------------------




--------------------------------------- Iteration      1(  18)  ---------------------------------------


    POTLOK:  cpu time    0.2137: real time    0.2508
    SETDIJ:  cpu time    0.0010: real time    0.0010
     EDDAV:  cpu time    0.8267: real time    0.8320
       DOS:  cpu time    0.0004: real time    0.0004
    CHARGE:  cpu time    0.0434: real time    0.0437
    MIXING:  cpu time    0.0008: real time    0.0008
    --------------------------------------------
      LOOP:  cpu time    1.0860: real time    1.1288

 eigenvalue-minimisations  :   384
 total energy-change (2. order) :-0.3744648E-06  (-0.9902585E-09)
 number of electron       7.9999974 magnetization 
 augmentation part        0.6876403 magnetization 

 Broyden mixing:
  rms(total) = 0.83551E-05    rms(broyden)= 0.83532E-05
  rms(prec ) = 0.15167E-04
  weight for this iteration     100.00

 eigenvalues of (default mixing * dielectric matrix)
  average eigenvalue GAMMA=   2.6085
  6.4773  5.2869  4.3954  3.3397  2.7713  2.4661  2.3017  1.9250  0.9429  0.9929
  0.9929  1.0095  1.0095

 Free energy of the ion-electron system (eV)
  ---------------------------------------------------
  alpha Z        PSCENC =         0.43793512
  Ewald energy   TEWEN  =        24.54851968
  -Hartree energ DENC   =      -420.05545021
  -exchange      EXHF   =         0.00000000
  -V(xc)+E(xc)   XCENC  =        34.07078200
  PAW double counting   =       328.84260138     -330.95199047
  entropy T*S    EENTRO =        -0.00000000
  eigenvalues    EBANDS =      -108.33806244
  atomic energy  EATOM  =       457.22046137
  Solvation  Ediel_sol  =         0.00000000
  ---------------------------------------------------
  free energy    TOTEN  =       -14.22520358 eV

  energy without entropy =      -14.22520358  energy(sigma->0) =      -14.22520358


--------------------------------------------------------------------------------------------------------




--------------------------------------- Iteration      1(  19)  ---------------------------------------


    POTLOK:  cpu time    0.3263: real time    0.3289
    SETDIJ:  cpu time    0.0010: real time    0.0010
     EDDAV:  cpu time    0.8272: real time    0.8326
       DOS:  cpu time    0.0004: real time    0.0004
    CHARGE:  cpu time    0.0450: real time    0.0453
    MIXING:  cpu time    0.0008: real time    0.0008
    --------------------------------------------
      LOOP:  cpu time    1.2007: real time    1.2090

 eigenvalue-minimisations  :   384
 total energy-change (2. order) :-0.3990939E-06  (-0.1356117E-08)
 number of electron       7.9999974 magnetization 
 augmentation part        0.6876417 magnetization 

 Broyden mixing:
  rms(total) = 0.15095E-05    rms(broyden)= 0.15032E-05
  rms(prec ) = 0.27170E-05
  weight for this iteration     100.00

 eigenvalues of (default mixing * dielectric matrix)
  average eigenvalue GAMMA=   2.7023
  6.5461  6.1201  4.4839  3.4800  2.9221  2.7535  2.4287  2.2387  1.9257  0.9460
  1.0249  0.9753  0.9933  0.9933

 Free energy of the ion-electron system (eV)
  ---------------------------------------------------
  alpha Z        PSCENC =         0.43793512
  Ewald energy   TEWEN  =        24.54851968
  -Hartree energ DENC   =      -420.05506321
  -exchange      EXHF   =         0.00000000
  -V(xc)+E(xc)   XCENC  =        34.07076884
  PAW double counting   =       328.84140707     -330.95079154
  entropy T*S    EENTRO =        -0.00000000
  eigenvalues    EBANDS =      -108.33844131
  atomic energy  EATOM  =       457.22046137
  Solvation  Ediel_sol  =         0.00000000
  ---------------------------------------------------
  free energy    TOTEN  =       -14.22520398 eV

  energy without entropy =      -14.22520398  energy(sigma->0) =      -14.22520398


--------------------------------------------------------------------------------------------------------




--------------------------------------- Iteration      1(  20)  ---------------------------------------


    POTLOK:  cpu time    0.3329: real time    0.3581
    SETDIJ:  cpu time    0.0011: real time    0.0011
     EDDAV:  cpu time    0.4185: real time    0.4217
       DOS:  cpu time    0.0004: real time    0.0004
    CHARGE:  cpu time    0.0453: real time    0.0456
    MIXING:  cpu time    0.0009: real time    0.0009
    --------------------------------------------
      LOOP:  cpu time    0.7991: real time    0.8278

 eigenvalue-minimisations  :   256
 total energy-change (2. order) :-0.5796335E-07  (-0.5939071E-10)
 number of electron       7.9999974 magnetization 
 augmentation part        0.6876418 magnetization 

 Broyden mixing:
  rms(total) = 0.37043E-06    rms(broyden)= 0.36903E-06
  rms(prec ) = 0.63169E-06
  weight for this iteration     100.00

 eigenvalues of (default mixing * dielectric matrix)
  average eigenvalue GAMMA=   2.6217
  6.5650  6.2701  4.4897  3.6268  3.0358  2.7299  2.4637  2.2656  1.9141  0.9460
  0.9734  0.9791  1.0256  1.0256  1.0153

 Free energy of the ion-electron system (eV)
  ---------------------------------------------------
  alpha Z        PSCENC =         0.43793512
  Ewald energy   TEWEN  =        24.54851968
  -Hartree energ DENC   =      -420.05499681
  -exchange      EXHF   =         0.00000000
  -V(xc)+E(xc)   XCENC  =        34.07076547
  PAW double counting   =       328.84169902     -330.95108457
  entropy T*S    EENTRO =        -0.00000000
  eigenvalues    EBANDS =      -108.33850332
  atomic energy  EATOM  =       457.22046137
  Solvation  Ediel_sol  =         0.00000000
  ---------------------------------------------------
  free energy    TOTEN  =       -14.22520404 eV

  energy without entropy =      -14.22520404  energy(sigma->0) =      -14.22520404


--------------------------------------------------------------------------------------------------------




--------------------------------------- Iteration      1(  21)  ---------------------------------------


    POTLOK:  cpu time    0.2668: real time    0.3256
    SETDIJ:  cpu time    0.0010: real time    0.0010
     EDDAV:  cpu time    0.8233: real time    0.8285
       DOS:  cpu time    0.0004: real time    0.0004
    --------------------------------------------
      LOOP:  cpu time    1.0915: real time    1.1555

 eigenvalue-minimisations  :   384
 total energy-change (2. order) :-0.2409138E-08  ( 0.8503420E-11)
 number of electron       7.9999974 magnetization 
 augmentation part        0.6876418 magnetization 

 Free energy of the ion-electron system (eV)
  ---------------------------------------------------
  alpha Z        PSCENC =         0.43793512
  Ewald energy   TEWEN  =        24.54851968
  -Hartree energ DENC   =      -420.05497636
  -exchange      EXHF   =         0.00000000
  -V(xc)+E(xc)   XCENC  =        34.07076437
  PAW double counting   =       328.84171269     -330.95109825
  entropy T*S    EENTRO =        -0.00000000
  eigenvalues    EBANDS =      -108.33852267
  atomic energy  EATOM  =       457.22046137
  Solvation  Ediel_sol  =         0.00000000
  ---------------------------------------------------
  free energy    TOTEN  =       -14.22520404 eV

  energy without entropy =      -14.22520404  energy(sigma->0) =      -14.22520404


--------------------------------------------------------------------------------------------------------




 average (electrostatic) potential at core
  the test charge radii are     0.7215  0.5201
  (the norm of the test charge is              1.0000)
       1 -80.4608       2 -44.4991       3 -44.4991
 
 
 
 E-fermi :  -6.0992     XC(G=0):  -1.0100     alpha+bet : -0.2541


 k-point     1 :       0.0000    0.0000    0.0000
  band No.  band energies     occupation 
      1     -25.1277      2.00000
      2     -12.9150      2.00000
      3      -9.0997      2.00000
      4      -7.0268      2.00000
      5      -1.0786      0.00000
      6       1.0867      0.00000
      7       1.2117      0.00000
      8       1.7151      0.00000
      9       1.7396      0.00000
     10       1.9525      0.00000
     11       2.0382      0.00000
     12       3.0215      0.00000
     13       3.7139      0.00000
     14       3.7423      0.00000
     15       3.8146      0.00000
     16       4.0006      0.00000
     17       4.0750      0.00000
     18       4.2331      0.00000
     19       4.3277      0.00000
     20       4.3416      0.00000
     21       4.3706      0.00000
     22       4.3759      0.00000
     23       4.5502      0.00000
     24       5.7672      0.00000
     25       6.2964      0.00000
     26       6.3661      0.00000
     27       6.3887      0.00000
     28       6.4940      0.00000
     29       6.5434      0.00000
     30       6.6788      0.00000
     31       6.7154      0.00000
     32       7.4831      0.00000
     33       7.8560      0.00000
     34       8.0253      0.00000
     35       8.6860      0.00000
     36       8.7553      0.00000
     37       9.1179      0.00000
     38       9.1378      0.00000
     39      10.0980      0.00000
     40      10.1086      0.00000
     41      10.3407      0.00000
     42      10.4083      0.00000
     43      10.7565      0.00000
     44      10.7638      0.00000
     45      10.7864      0.00000
     46      10.9336      0.00000
     47      11.0872      0.00000
     48      11.1176      0.00000
     49      11.1495      0.00000
     50      11.1663      0.00000
     51      11.2561      0.00000
     52      11.2764      0.00000
     53      11.2863      0.00000
     54      11.3518      0.00000
     55      11.3899      0.00000
     56      11.4699      0.00000
     57      11.4846      0.00000
     58      11.4996      0.00000
     59      11.5136      0.00000
     60      11.5831      0.00000
     61      12.0924      0.00000
     62      12.2828      0.00000
     63      12.7721      0.00000
     64      12.9160      0.00000
     65      12.9281      0.00000
     66      13.1898      0.00000
     67      13.2367      0.00000
     68      13.3934      0.00000
     69      13.5633      0.00000
     70      13.5888      0.00000
     71      13.6018      0.00000
     72      13.6041      0.00000
     73      13.6133      0.00000
     74      13.6227      0.00000
     75      13.6322      0.00000
     76      13.6546      0.00000
     77      13.6581      0.00000
     78      13.6593      0.00000
     79      13.6678      0.00000
     80      13.6695      0.00000
     81      13.6720      0.00000
     82      13.8157      0.00000
     83      13.8188      0.00000
     84      14.0196      0.00000
     85      14.7225      0.00000
     86      15.6974      0.00000
     87      16.7078      0.00000
     88      17.3512      0.00000
     89      17.5325      0.00000
     90      17.5835      0.00000
     91      17.7846      0.00000
     92      17.8594      0.00000
     93      17.8637      0.00000
     94      18.2136      0.00000
     95      18.2598      0.00000
     96      18.4033      0.00000
     97      18.4903      0.00000
     98      18.9044      0.00000
     99      18.9486      0.00000
    100      19.2038      0.00000
    101      19.5240      0.00000
    102      19.6393      0.00000
    103      19.7403      0.00000
    104      19.8009      0.00000
    105      19.9494      0.00000
    106      19.9732      0.00000
    107      20.1449      0.00000
    108      20.5177      0.00000
    109      20.5469      0.00000
    110      20.5921      0.00000
    111      20.6068      0.00000
    112      20.6136      0.00000
    113      20.6169      0.00000
    114      20.6349      0.00000
    115      20.6400      0.00000
    116      20.6443      0.00000
    117      20.6543      0.00000
    118      20.6690      0.00000
    119      20.6780      0.00000
    120      20.6866      0.00000
    121      20.6980      0.00000
    122      20.7036      0.00000
    123      20.7057      0.00000
    124      20.9122      0.00000
    125      20.9352      0.00000
    126      21.1527      0.00000
    127      21.5214      0.00000
    128      21.8817      0.00000


--------------------------------------------------------------------------------------------------------


 soft charge-density along one line, spin component           1
         0         1         2         3         4         5         6         7         8         9
 total charge-density along one line
 
 pseudopotential strength for first ion, spin component:           1
 13.785  -0.525   0.000  -0.000  -0.121  -0.000   0.000   0.006
 -0.525   0.119  -0.000   0.000   0.015   0.000  -0.000  -0.003
  0.000  -0.000 -10.566  -0.000  -0.000   0.294   0.000   0.000
 -0.000   0.000  -0.000 -10.328  -0.000   0.000   0.254   0.000
 -0.121   0.015  -0.000  -0.000 -10.470   0.000   0.000   0.277
 -0.000   0.000   0.294   0.000   0.000   0.126  -0.000  -0.000
  0.000  -0.000   0.000   0.254   0.000  -0.000   0.138  -0.000
  0.006  -0.003   0.000   0.000   0.277  -0.000  -0.000   0.131
 total augmentation occupancy for first ion, spin component:           1
  1.858   0.206   0.000   0.000  -0.169   0.000   0.000   0.053
  0.206   0.046   0.000   0.000   0.173   0.000   0.000   0.032
  0.000   0.000   1.410   0.000   0.000   0.268   0.000   0.000
  0.000   0.000   0.000   1.811   0.000   0.000   0.112   0.000
 -0.169   0.173   0.000   0.000   1.568   0.000   0.000   0.208
  0.000   0.000   0.268   0.000   0.000   0.051   0.000   0.000
  0.000   0.000   0.000   0.112   0.000   0.000   0.007   0.000
  0.053   0.032   0.000   0.000   0.208   0.000   0.000   0.031


------------------------ aborting loop because EDIFF is reached ----------------------------------------


    CHARGE:  cpu time    0.0453: real time    0.0458
    FORLOC:  cpu time    0.0019: real time    0.0019
    FORNL :  cpu time    0.0051: real time    0.0052
    STRESS:  cpu time    0.0291: real time    0.0308
    FORHAR:  cpu time    0.0049: real time    0.0051
    MIXING:  cpu time    0.0015: real time    0.0015
    OFIELD:  cpu time    0.0010: real time    0.0016

  FORCE on cell =-STRESS in cart. coord.  units (eV):
  Direction    XX          YY          ZZ          XY          YZ          ZX
  --------------------------------------------------------------------------------------
  Alpha Z     0.43794     0.43794     0.43794
  Ewald      12.62220    66.79641   -54.87014     0.00000    -0.00000     0.00000
  Hartree   141.01003   150.35665   128.68830    -0.00000    -0.00000    -0.00000
  E(xc)     -36.10231   -35.90545   -36.39904     0.00000    -0.00000    -0.00000
  Local    -243.04433  -291.44449  -183.92996     0.00000    -0.00000    -0.00000
  n-local   -31.31059   -30.45461   -31.20045    -0.00000     0.00000     0.00000
  augment     6.72259     5.76839     8.13575    -0.00000     0.00000    -0.00000
  Kinetic   148.87784   133.79175   168.25393    -0.00000    -0.00000     0.00000
  Fock        0.00000     0.00000     0.00000     0.00000     0.00000     0.00000
  -------------------------------------------------------------------------------------
  Total      -0.78663    -0.65341    -0.88368     0.00000     0.00000     0.00000
  in kB      -2.46157    -2.04468    -2.76526     0.00000     0.00000     0.00000
  external pressure =       -2.42 kB  Pullay stress =        0.00 kB


 VOLUME and BASIS-vectors are now :
 -----------------------------------------------------------------------------
  energy-cutoff  :      400.00
  volume of cell :      512.00
      direct lattice vectors                 reciprocal lattice vectors
     8.000000000  0.000000000  0.000000000     0.125000000  0.000000000  0.000000000
     0.000000000  8.000000000  0.000000000     0.000000000  0.125000000  0.000000000
     0.000000000  0.000000000  8.000000000     0.000000000  0.000000000  0.125000000

  length of vectors
     8.000000000  8.000000000  8.000000000     0.125000000  0.125000000  0.125000000


 FORCES acting on ions
    electron-ion (+dipol)            ewald-force                    non-local-force                 convergence-correction
 -----------------------------------------------------------------------------------------------
   0.622E+02 -.136E-15 -.315E-14   -.111E+03 0.000E+00 0.700E-17   0.491E+02 0.000E+00 0.000E+00   -.599E-06 0.263E-13 0.327E-14
   -.508E+02 0.708E+02 -.826E-07   0.557E+02 -.776E+02 -.839E-18   -.486E+01 0.672E+01 0.000E+00   0.110E-06 -.264E-06 -.563E-15
   -.508E+02 -.708E+02 0.112E-06   0.557E+02 0.776E+02 0.152E-17   -.486E+01 -.672E+01 0.000E+00   0.110E-06 0.264E-06 -.448E-14
 -----------------------------------------------------------------------------------------------
   -.394E+02 0.426E-13 0.294E-07   0.000E+00 0.000E+00 0.767E-17   0.394E+02 0.000E+00 0.000E+00   -.378E-06 0.247E-13 -.177E-14
 
 
 POSITION                                       TOTAL-FORCE (eV/Angst)
 -----------------------------------------------------------------------------------
      0.00000      0.00000      0.00000        -0.043417      0.000000      0.000000
      0.59608      7.23229      0.00000         0.021708     -0.034113      0.000000
      0.59608      0.76771      0.00000         0.021708      0.034113      0.000000
 -----------------------------------------------------------------------------------
    total drift:                                0.000133      0.000000      0.000000


--------------------------------------------------------------------------------------------------------



  FREE ENERGIE OF THE ION-ELECTRON SYSTEM (eV)
  ---------------------------------------------------
  free  energy   TOTEN  =       -14.22520404 eV

  energy  without entropy=      -14.22520404  energy(sigma->0) =      -14.22520404
 


--------------------------------------------------------------------------------------------------------


    POTLOK:  cpu time    0.0175: real time    0.0177


--------------------------------------------------------------------------------------------------------


 
 
Found     6 degrees of freedom:
 
 
        Directions for atom     1:
        --------------------------
 
              1.0000000000000000      0.0000000000000000      0.0000000000000000
              0.0000000000000000      1.0000000000000000      0.0000000000000000
              0.0000000000000000      0.0000000000000000      1.0000000000000000
 
 
        Directions for atom     2:
        --------------------------
 
              1.0000000000000000      0.0000000000000000      0.0000000000000000
              0.0000000000000000      1.0000000000000000      0.0000000000000000
              0.0000000000000000      0.0000000000000000      1.0000000000000000
 Finite differences:
   Step               POTIM =   1.500000000000000E-002
   Degrees of freedom DOF   =            6
  LATTYP: Found a simple cubic cell.
 ALAT       =     8.0000000000
  
  Lattice vectors:
  
 A1 = (   8.0000000000,   0.0000000000,   0.0000000000)
 A2 = (   0.0000000000,   8.0000000000,   0.0000000000)
 A3 = (   0.0000000000,   0.0000000000,   8.0000000000)


Analysis of symmetry for initial positions (statically):
=====================================================================
 Subroutine PRICEL returns:
 Original cell was already a primitive cell.
 

 Routine SETGRP: Setting up the symmetry group for a 
 simple cubic supercell.


 Subroutine GETGRP returns: Found  4 space group operations
 (whereof  4 operations were pure point group operations)
 out of a pool of 48 trial point group operations.


The static configuration has the point symmetry C_2v.


Analysis of symmetry for dynamics (positions and initial velocities):
=====================================================================
 Subroutine PRICEL returns:
 Original cell was already a primitive cell.
 

 Routine SETGRP: Setting up the symmetry group for a 
 simple cubic supercell.


 Subroutine GETGRP returns: Found  4 space group operations
 (whereof  4 operations were pure point group operations)
 out of a pool of 48 trial point group operations.


The dynamic configuration has the point symmetry C_2v.


 Subroutine INISYM returns: Found  4 space group operations
 (whereof  4 operations are pure point group operations),
 and found     1 'primitive' translations

 
 KPOINTS: Gamma-point only                        

Automatic generation of k-mesh.
Space group operators:
 irot       det(A)        alpha          n_x          n_y          n_z        tau_x        tau_y        tau_z
    1     1.000000     0.000000     1.000000     0.000000     0.000000     0.000000     0.000000     0.000000
    2    -1.000000   180.000000     0.000000     0.000000     1.000000     0.000000     0.000000     0.000000
    3     1.000000   180.000000     1.000000     0.000000     0.000000     0.000000     0.000000     0.000000
    4    -1.000000   180.000000     0.000000     1.000000     0.000000     0.000000     0.000000     0.000000
 
 Subroutine IBZKPT returns following result:
 ===========================================
 
 Found      1 irreducible k-points:
 
 Following reciprocal coordinates:
            Coordinates               Weight
  0.000000  0.000000  0.000000      1.000000
 
 Following cartesian coordinates:
            Coordinates               Weight
  0.000000  0.000000  0.000000      1.000000
 
    WAVPRE:  cpu time    1.2519: real time    1.3447
    FEWALD:  cpu time    0.0008: real time    0.0016
    ORTHCH:  cpu time    0.0126: real time    0.0127
     LOOP+:  cpu time   65.5617: real time   68.7421


--------------------------------------- Iteration      2(   1)  ---------------------------------------


    POTLOK:  cpu time    0.1083: real time    0.1246
    SETDIJ:  cpu time    0.0010: real time    0.0010
     EDDAV:  cpu time    0.4117: real time    0.4147
       DOS:  cpu time    0.0004: real time    0.0004
    CHARGE:  cpu time    0.0436: real time    0.0441
    MIXING:  cpu time    0.0004: real time    0.0004
    --------------------------------------------
      LOOP:  cpu time    0.5655: real time    0.5853

 eigenvalue-minimisations  :   256
 total energy-change (2. order) : 0.3923615E-02  (-0.1300264E+00)
 number of electron       7.9999982 magnetization 
 augmentation part        0.6959076 magnetization 

 Broyden mixing:
  rms(total) = 0.28748E-01    rms(broyden)= 0.28611E-01
  rms(prec ) = 0.36873E-01
  weight for this iteration     100.00

 Free energy of the ion-electron system (eV)
  ---------------------------------------------------
  alpha Z        PSCENC =         0.43793512
  Ewald energy   TEWEN  =        26.22152627
  -Hartree energ DENC   =      -420.73247609
  -exchange      EXHF   =         0.00000000
  -V(xc)+E(xc)   XCENC  =        34.09931216
  PAW double counting   =       328.84166978     -330.95105520
  entropy T*S    EENTRO =        -0.00000000
  eigenvalues    EBANDS =      -109.35865383
  atomic energy  EATOM  =       457.22046137
  Solvation  Ediel_sol  =         0.00000000
  ---------------------------------------------------
  free energy    TOTEN  =       -14.22128043 eV

  energy without entropy =      -14.22128043  energy(sigma->0) =      -14.22128043


--------------------------------------------------------------------------------------------------------




--------------------------------------- Iteration      2(   2)  ---------------------------------------


    POTLOK:  cpu time    0.1467: real time    0.1842
    SETDIJ:  cpu time    0.0010: real time    0.0010
     EDDAV:  cpu time    0.8855: real time    0.8909
       DOS:  cpu time    0.0004: real time    0.0004
    CHARGE:  cpu time    0.0443: real time    0.0446
    MIXING:  cpu time    0.0005: real time    0.0005
    --------------------------------------------
      LOOP:  cpu time    1.0784: real time    1.1216

 eigenvalue-minimisations  :   384
 total energy-change (2. order) : 0.1351828E-02  (-0.6808475E-03)
 number of electron       7.9999982 magnetization 
 augmentation part        0.6924802 magnetization 

 Broyden mixing:
  rms(total) = 0.10859E-01    rms(broyden)= 0.10824E-01
  rms(prec ) = 0.13207E-01
  weight for this iteration     100.00

 eigenvalues of (default mixing * dielectric matrix)
  average eigenvalue GAMMA=   1.1449
  1.1449

 Free energy of the ion-electron system (eV)
  ---------------------------------------------------
  alpha Z        PSCENC =         0.43793512
  Ewald energy   TEWEN  =        26.22152627
  -Hartree energ DENC   =      -421.31296141
  -exchange      EXHF   =         0.00000000
  -V(xc)+E(xc)   XCENC  =        34.13317428
  PAW double counting   =       330.48838200     -332.60996626
  entropy T*S    EENTRO =        -0.00000000
  eigenvalues    EBANDS =      -108.79847997
  atomic energy  EATOM  =       457.22046137
  Solvation  Ediel_sol  =         0.00000000
  ---------------------------------------------------
  free energy    TOTEN  =       -14.21992860 eV

  energy without entropy =      -14.21992860  energy(sigma->0) =      -14.21992860


--------------------------------------------------------------------------------------------------------




--------------------------------------- Iteration      2(   3)  ---------------------------------------


    POTLOK:  cpu time    0.1804: real time    0.2960
    SETDIJ:  cpu time    0.0011: real time    0.0011
     EDDAV:  cpu time    0.8585: real time    0.8643
       DOS:  cpu time    0.0004: real time    0.0004
    CHARGE:  cpu time    0.0441: real time    0.0443
    MIXING:  cpu time    0.0013: real time    0.0013
    --------------------------------------------
      LOOP:  cpu time    1.0858: real time    1.2074

 eigenvalue-minimisations  :   384
 total energy-change (2. order) : 0.9306758E-04  (-0.1722026E-04)
 number of electron       7.9999982 magnetization 
 augmentation part        0.6927721 magnetization 

 Broyden mixing:
  rms(total) = 0.58284E-02    rms(broyden)= 0.58262E-02
  rms(prec ) = 0.69532E-02
  weight for this iteration     100.00

 eigenvalues of (default mixing * dielectric matrix)
  average eigenvalue GAMMA=   1.6334
  0.9493  2.3176

 Free energy of the ion-electron system (eV)
  ---------------------------------------------------
  alpha Z        PSCENC =         0.43793512
  Ewald energy   TEWEN  =        26.22152627
  -Hartree energ DENC   =      -421.32752242
  -exchange      EXHF   =         0.00000000
  -V(xc)+E(xc)   XCENC  =        34.13484465
  PAW double counting   =       330.89522649     -333.01839245
  entropy T*S    EENTRO =        -0.00000000
  eigenvalues    EBANDS =      -108.78391457
  atomic energy  EATOM  =       457.22046137
  Solvation  Ediel_sol  =         0.00000000
  ---------------------------------------------------
  free energy    TOTEN  =       -14.21983553 eV

  energy without entropy =      -14.21983553  energy(sigma->0) =      -14.21983553


--------------------------------------------------------------------------------------------------------




--------------------------------------- Iteration      2(   4)  ---------------------------------------


    POTLOK:  cpu time    0.2854: real time    0.3053
    SETDIJ:  cpu time    0.0011: real time    0.0011
     EDDAV:  cpu time    0.8177: real time    0.8230
       DOS:  cpu time    0.0004: real time    0.0004
    CHARGE:  cpu time    0.0443: real time    0.0446
    MIXING:  cpu time    0.0005: real time    0.0006
    --------------------------------------------
      LOOP:  cpu time    1.1493: real time    1.1749

 eigenvalue-minimisations  :   384
 total energy-change (2. order) :-0.4965875E-04  (-0.1388314E-04)
 number of electron       7.9999982 magnetization 
 augmentation part        0.6927949 magnetization 

 Broyden mixing:
  rms(total) = 0.74556E-03    rms(broyden)= 0.74220E-03
  rms(prec ) = 0.10443E-02
  weight for this iteration     100.00

 eigenvalues of (default mixing * dielectric matrix)
  average eigenvalue GAMMA=   1.8015
  0.9409  2.5072  1.9565

 Free energy of the ion-electron system (eV)
  ---------------------------------------------------
  alpha Z        PSCENC =         0.43793512
  Ewald energy   TEWEN  =        26.22152627
  -Hartree energ DENC   =      -421.38503315
  -exchange      EXHF   =         0.00000000
  -V(xc)+E(xc)   XCENC  =        34.13888516
[...]
      8       1.7151      0.00000
      9       1.7396      0.00000
     10       1.9526      0.00000
     11       2.0384      0.00000
     12       3.0215      0.00000
     13       3.7130      0.00000
     14       3.7433      0.00000
     15       3.8149      0.00000
     16       4.0008      0.00000
     17       4.0757      0.00000
     18       4.2333      0.00000
     19       4.3278      0.00000
     20       4.3418      0.00000
     21       4.3711      0.00000
     22       4.3759      0.00000
     23       4.5506      0.00000
     24       5.7674      0.00000
     25       6.2964      0.00000
     26       6.3662      0.00000
     27       6.3887      0.00000
     28       6.4949      0.00000
     29       6.5437      0.00000
     30       6.6792      0.00000
     31       6.7157      0.00000
     32       7.4832      0.00000
     33       7.8556      0.00000
     34       8.0253      0.00000
     35       8.6860      0.00000
     36       8.7556      0.00000
     37       9.1182      0.00000
     38       9.1382      0.00000
     39      10.0937      0.00000
     40      10.1133      0.00000
     41      10.3407      0.00000
     42      10.4090      0.00000
     43      10.7566      0.00000
     44      10.7635      0.00000
     45      10.7869      0.00000
     46      10.9337      0.00000
     47      11.0875      0.00000
     48      11.1178      0.00000
     49      11.1496      0.00000
     50      11.1664      0.00000
     51      11.2562      0.00000
     52      11.2767      0.00000
     53      11.2866      0.00000
     54      11.3523      0.00000
     55      11.3903      0.00000
     56      11.4700      0.00000
     57      11.4847      0.00000
     58      11.4997      0.00000
     59      11.5140      0.00000
     60      11.5831      0.00000
     61      12.0929      0.00000
     62      12.2832      0.00000
     63      12.7723      0.00000
     64      12.9163      0.00000
     65      12.9283      0.00000
     66      13.1907      0.00000
     67      13.2372      0.00000
     68      13.3941      0.00000
     69      13.5637      0.00000
     70      13.5893      0.00000
     71      13.6019      0.00000
     72      13.6044      0.00000
     73      13.6135      0.00000
     74      13.6227      0.00000
     75      13.6323      0.00000
     76      13.6549      0.00000
     77      13.6583      0.00000
     78      13.6596      0.00000
     79      13.6678      0.00000
     80      13.6697      0.00000
     81      13.6722      0.00000
     82      13.8162      0.00000
     83      13.8193      0.00000
     84      14.0200      0.00000
     85      14.7228      0.00000
     86      15.6975      0.00000
     87      16.7080      0.00000
     88      17.3514      0.00000
     89      17.5324      0.00000
     90      17.5840      0.00000
     91      17.7848      0.00000
     92      17.8587      0.00000
     93      17.8647      0.00000
     94      18.2138      0.00000
     95      18.2601      0.00000
     96      18.4036      0.00000
     97      18.4905      0.00000
     98      18.9048      0.00000
     99      18.9489      0.00000
    100      19.2039      0.00000
    101      19.5243      0.00000
    102      19.6396      0.00000
    103      19.7406      0.00000
    104      19.8010      0.00000
    105      19.9497      0.00000
    106      19.9735      0.00000
    107      20.1453      0.00000
    108      20.5179      0.00000
    109      20.5471      0.00000
    110      20.5925      0.00000
    111      20.6072      0.00000
    112      20.6140      0.00000
    113      20.6171      0.00000
    114      20.6351      0.00000
    115      20.6402      0.00000
    116      20.6448      0.00000
    117      20.6546      0.00000
    118      20.6693      0.00000
    119      20.6782      0.00000
    120      20.6869      0.00000
    121      20.6983      0.00000
    122      20.7037      0.00000
    123      20.7058      0.00000
    124      20.9125      0.00000
    125      20.9354      0.00000
    126      21.1529      0.00000
    127      21.5216      0.00000
    128      21.8819      0.00000


--------------------------------------------------------------------------------------------------------


 soft charge-density along one line, spin component           1
         0         1         2         3         4         5         6         7         8         9
 total charge-density along one line
 
 pseudopotential strength for first ion, spin component:           1
 13.785  -0.525  -0.000   0.002  -0.121   0.000  -0.000   0.006
 -0.525   0.119   0.000  -0.000   0.015  -0.000   0.000  -0.003
 -0.000   0.000 -10.566  -0.002  -0.000   0.294   0.000   0.000
  0.002  -0.000  -0.002 -10.328   0.002   0.000   0.254  -0.000
 -0.121   0.015  -0.000   0.002 -10.470   0.000  -0.000   0.277
  0.000  -0.000   0.294   0.000   0.000   0.126  -0.000  -0.000
 -0.000   0.000   0.000   0.254  -0.000  -0.000   0.138   0.000
  0.006  -0.003   0.000  -0.000   0.277  -0.000   0.000   0.131
 total augmentation occupancy for first ion, spin component:           1
  1.858   0.206   0.000   0.002  -0.169   0.000  -0.001   0.053
  0.206   0.046   0.000  -0.002   0.173   0.000  -0.000   0.032
  0.000   0.000   1.410  -0.004   0.000   0.268   0.002   0.000
  0.002  -0.002  -0.004   1.811   0.003   0.002   0.112  -0.001
 -0.169   0.173   0.000   0.003   1.568   0.000  -0.001   0.208
  0.000   0.000   0.268   0.002   0.000   0.051   0.000   0.000
 -0.001  -0.000   0.002   0.112  -0.001   0.000   0.007  -0.000
  0.053   0.032   0.000  -0.001   0.208   0.000  -0.000   0.031


------------------------ aborting loop because EDIFF is reached ----------------------------------------


    CHARGE:  cpu time    0.0235: real time    0.0241
    FORLOC:  cpu time    0.0014: real time    0.0016
    FORNL :  cpu time    0.0045: real time    0.0052
    STRESS:  cpu time    0.0293: real time    0.0310
    FORHAR:  cpu time    0.0047: real time    0.0054
    MIXING:  cpu time    0.0087: real time    0.0114
    OFIELD:  cpu time    0.0008: real time    0.0010

  FORCE on cell =-STRESS in cart. coord.  units (eV):
  Direction    XX          YY          ZZ          XY          YZ          ZX
  --------------------------------------------------------------------------------------
  Alpha Z     0.43794     0.43794     0.43794
  Ewald      12.61021    66.77521   -54.84789     0.01537     1.15868    -0.83182
  Hartree   141.00570   150.35152   128.68919     0.00141     0.19988    -0.14690
  E(xc)     -36.10189   -35.90505   -36.39849     0.00004     0.00482    -0.00373
  Local    -243.03155  -291.42518  -183.94553    -0.01076    -1.00921     0.71807
  n-local   -31.30921   -30.45316   -31.19965    -0.00064     0.00721     0.00145
  augment     6.72261     5.76855     8.13521    -0.00025    -0.02309     0.01776
  Kinetic   148.87761   133.79332   168.24569    -0.00244    -0.33609     0.24349
  Fock        0.00000     0.00000     0.00000     0.00000     0.00000     0.00000
  -------------------------------------------------------------------------------------
  Total      -0.78858    -0.65686    -0.88356     0.00274     0.00220    -0.00168
  in kB      -2.46768    -2.05548    -2.76488     0.00856     0.00689    -0.00526
  external pressure =       -2.43 kB  Pullay stress =        0.00 kB


 VOLUME and BASIS-vectors are now :
 -----------------------------------------------------------------------------
  energy-cutoff  :      400.00
  volume of cell :      512.00
      direct lattice vectors                 reciprocal lattice vectors
     8.000000000  0.000000000  0.000000000     0.125000000  0.000000000  0.000000000
     0.000000000  8.000000000  0.000000000     0.000000000  0.125000000  0.000000000
     0.000000000  0.000000000  8.000000000     0.000000000  0.000000000  0.125000000

  length of vectors
     8.000000000  8.000000000  8.000000000     0.125000000  0.125000000  0.125000000


 FORCES acting on ions
    electron-ion (+dipol)            ewald-force                    non-local-force                 convergence-correction
 -----------------------------------------------------------------------------------------------
   0.622E+02 0.141E-01 -.783E+00   -.111E+03 -.258E-01 0.140E+01   0.491E+02 0.706E-02 -.617E+00   0.192E-06 0.584E-06 -.322E-05
   -.508E+02 0.708E+02 0.133E+01   0.557E+02 -.776E+02 -.146E+01   -.486E+01 0.671E+01 0.127E+00   0.209E-07 0.885E-07 -.502E-07
   -.508E+02 -.708E+02 -.535E-01   0.557E+02 0.776E+02 0.582E-01   -.486E+01 -.672E+01 -.450E-02   0.184E-07 0.450E-07 -.287E-06
 -----------------------------------------------------------------------------------------------
   -.394E+02 -.355E-02 0.495E+00   -.711E-14 0.000E+00 0.208E-16   0.394E+02 0.355E-02 -.495E+00   0.231E-06 0.717E-06 -.355E-05
 
 
 POSITION                                       TOTAL-FORCE (eV/Angst)
 -----------------------------------------------------------------------------------
      0.00000      0.00000      0.00000        -0.040103     -0.004599      0.000761
      0.59608      7.23229     -0.01500         0.018250     -0.029578     -0.000962
      0.59608      0.76771      0.00000         0.021854      0.034177      0.000202
 -----------------------------------------------------------------------------------
    total drift:                                0.000099      0.000001     -0.000062


--------------------------------------------------------------------------------------------------------



  FREE ENERGIE OF THE ION-ELECTRON SYSTEM (eV)
  ---------------------------------------------------
  free  energy   TOTEN  =       -14.22521188 eV

  energy  without entropy=      -14.22521188  energy(sigma->0) =      -14.22521188
 
 d Force = 0.3197067E-08[ 0.289E-04,-0.289E-04]  d Energy =-0.1275168E-08 0.447E-08
 d Force = 0.0000000E+00[ 0.438E-01,-0.438E-01]  d Ewald  =-0.2842171E-13 0.284E-13


--------------------------------------------------------------------------------------------------------


    POTLOK:  cpu time    0.0171: real time    0.0173


--------------------------------------------------------------------------------------------------------


 Finite differences progress:
  Degree of freedom:   6/  6
  Displacement:        2/  2
  Total:              12/ 12


--------------------------------------------------------------------------------------------------------


 INTERNAL STRAIN TENSORS FROM DISPLACED ATOMS
 ============================================

 INTERNAL STRAIN TENSOR FOR ION    1 for displacements in x,y,z  (eV/Angst):
          X           Y           Z          XY          YZ          ZX
  --------------------------------------------------------------------------------
  x    24.16255    28.30049     0.03786     0.00000     0.00000     0.00000
  y     0.00000     0.00000     0.00000    37.03527     0.00000     0.00000
  z     0.00000     0.00000     0.00000     0.00000     0.00000    -0.22355

 INTERNAL STRAIN TENSOR FOR ION    2 for displacements in x,y,z  (eV/Angst):
          X           Y           Z          XY          YZ          ZX
  --------------------------------------------------------------------------------
  x   -12.08592   -14.15263    -0.01906    14.31295     0.00000     0.00000
  y    10.95335    28.22858    -0.00604   -18.52124     0.00000     0.00000
  z     0.00000     0.00000     0.00000     0.00000    -0.14689     0.11204

 INTERNAL STRAIN TENSOR FOR ION    3 for displacements in x,y,z  (eV/Angst):
          X           Y           Z          XY          YZ          ZX
  --------------------------------------------------------------------------------
  x   -12.08592   -14.15263    -0.01906   -14.31295     0.00000     0.00000
  y   -10.95335   -28.22858     0.00604   -18.52124     0.00000     0.00000
  z     0.00000     0.00000     0.00000     0.00000     0.14689     0.11204


--------------------------------------------------------------------------------------------------------


 
 Eigenvectors and eigenvalues of the dynamical matrix
 ----------------------------------------------------
 
 
   1 f  =  115.029900 THz   722.754181 2PiTHz 3836.984350 cm-1   475.725600 meV
             X         Y         Z           dx          dy          dz
      0.000000  0.000000  0.000000    -0.000000   -0.268872    0.000000  
      0.596081  7.232293  0.000000    -0.417632    0.537994   -0.000000  
      0.596081  0.767707  0.000000     0.417632    0.537994   -0.000000  
 
   2 f  =  111.640489 THz   701.457881 2PiTHz 3723.925763 cm-1   461.708116 meV
             X         Y         Z           dx          dy          dz
      0.000000  0.000000  0.000000     0.192070   -0.000000   -0.000000  
      0.596081  7.232293  0.000000    -0.384335    0.577790    0.000000  
      0.596081  0.767707  0.000000    -0.384335   -0.577790   -0.000000  
 
   3 f  =   47.399735 THz   297.821318 2PiTHz 1581.084921 cm-1   196.029617 meV
             X         Y         Z           dx          dy          dz
      0.000000  0.000000  0.000000     0.271617   -0.000000    0.000000  
      0.596081  7.232293  0.000000    -0.544935   -0.407625    0.000000  
      0.596081  0.767707  0.000000    -0.544935    0.407625   -0.000000  
 
   4 f  =    0.571381 THz     3.590091 2PiTHz   19.059211 cm-1     2.363042 meV
             X         Y         Z           dx          dy          dz
      0.000000  0.000000  0.000000     0.000000    0.000000    0.885951  
      0.596081  7.232293  0.000000     0.000000    0.000000    0.327942  
      0.596081  0.767707  0.000000    -0.000000    0.000000    0.327942  
 
   5 f  =    0.261288 THz     1.641723 2PiTHz    8.715638 cm-1     1.080602 meV
             X         Y         Z           dx          dy          dz
      0.000000  0.000000  0.000000     0.000000   -0.930287    0.000000  
      0.596081  7.232293  0.000000    -0.032115   -0.257393    0.000000  
      0.596081  0.767707  0.000000     0.032115   -0.257393    0.000000  
 
   6 f/i=    0.039361 THz     0.247310 2PiTHz    1.312929 cm-1     0.162783 meV
             X         Y         Z           dx          dy          dz
      0.000000  0.000000  0.000000     0.943045    0.000000   -0.000000  
      0.596081  7.232293  0.000000     0.235230   -0.000274   -0.000000  
      0.596081  0.767707  0.000000     0.235230    0.000274   -0.000000  
 
   7 f/i=    3.984794 THz    25.037197 2PiTHz  132.918407 cm-1    16.479788 meV
             X         Y         Z           dx          dy          dz
      0.000000  0.000000  0.000000    -0.000000    0.000000    0.463779  
      0.596081  7.232293  0.000000    -0.000000   -0.000000   -0.626462  
      0.596081  0.767707  0.000000     0.000000   -0.000000   -0.626462  
 
   8 f/i=    4.355057 THz    27.363629 2PiTHz  145.269056 cm-1    18.011074 meV
             X         Y         Z           dx          dy          dz
      0.000000  0.000000  0.000000     0.000000   -0.000000   -0.000000  
      0.596081  7.232293  0.000000     0.000000    0.000000    0.707107  
      0.596081  0.767707  0.000000    -0.000000    0.000000   -0.707107  
 
   9 f/i=    4.648552 THz    29.207716 2PiTHz  155.059014 cm-1    19.224874 meV
             X         Y         Z           dx          dy          dz
      0.000000  0.000000  0.000000    -0.000000   -0.249546    0.000000  
      0.596081  7.232293  0.000000     0.569695    0.379883   -0.000000  
      0.596081  0.767707  0.000000    -0.569695    0.379883    0.000000  
 

 ELASTIC MODULI CONTR FROM IONIC RELAXATION (kBar)
 Direction    XX          YY          ZZ          XY          YZ          ZX
 --------------------------------------------------------------------------------
 XX         -44.5872    -52.2500     -0.0700      0.0000     -0.0000      0.0000
 YY         -52.2500   -134.4072      0.0284     -0.0000     -0.0000     -0.0000
 ZZ          -0.0700      0.0284     -0.0003     -0.0000      0.0000     -0.0000
 XY           0.0000      0.0000      0.0000    -68.4799      0.0000      0.0000
 YZ          -0.0000     -0.0000      0.0000      0.0000     -0.0000     -0.0000
 ZX           0.0000     -0.0000     -0.0000      0.0000     -0.0000     -0.8904
 --------------------------------------------------------------------------------



--------------------------------------------------------------------------------------------------------


  LATTYP: Found a simple cubic cell.
 ALAT       =     8.0000000000
  
  Lattice vectors:
  
 A1 = (   8.0000000000,   0.0000000000,   0.0000000000)
 A2 = (   0.0000000000,   8.0000000000,   0.0000000000)
 A3 = (   0.0000000000,   0.0000000000,   8.0000000000)


Analysis of symmetry for initial positions (statically):
=====================================================================
 Subroutine PRICEL returns:
 Original cell was already a primitive cell.
 

 Routine SETGRP: Setting up the symmetry group for a 
 simple cubic supercell.


 Subroutine GETGRP returns: Found  4 space group operations
 (whereof  4 operations were pure point group operations)
 out of a pool of 48 trial point group operations.


The static configuration has the point symmetry C_2v.


Analysis of symmetry for dynamics (positions and initial velocities):
=====================================================================
 Subroutine PRICEL returns:
 Original cell was already a primitive cell.
 

 Routine SETGRP: Setting up the symmetry group for a 
 simple cubic supercell.


 Subroutine GETGRP returns: Found  4 space group operations
 (whereof  4 operations were pure point group operations)
 out of a pool of 48 trial point group operations.


The dynamic configuration has the point symmetry C_2v.


 Subroutine INISYM returns: Found  4 space group operations
 (whereof  4 operations are pure point group operations),
 and found     1 'primitive' translations

 
 KPOINTS: Gamma-point only                        

Automatic generation of k-mesh.
Space group operators:
 irot       det(A)        alpha          n_x          n_y          n_z        tau_x        tau_y        tau_z
    1     1.000000     0.000000     1.000000     0.000000     0.000000     0.000000     0.000000     0.000000
    2    -1.000000   180.000000     0.000000     0.000000     1.000000     0.000000     0.000000     0.000000
    3     1.000000   180.000000     1.000000     0.000000     0.000000     0.000000     0.000000     0.000000
    4    -1.000000   180.000000     0.000000     1.000000     0.000000     0.000000     0.000000     0.000000
 
 Subroutine IBZKPT returns following result:
 ===========================================
 
 Found      1 irreducible k-points:
 
 Following reciprocal coordinates:
            Coordinates               Weight
  0.000000  0.000000  0.000000      1.000000
 
 Following cartesian coordinates:
            Coordinates               Weight
  0.000000  0.000000  0.000000      1.000000
 
 writing wavefunctions
     LOOP+:  cpu time   53.9186: real time   55.2177
    4ORBIT:  cpu time    0.0000: real time    0.0000

 total amount of memory used by VASP MPI-rank0    39891. kBytes
=======================================================================

   base      :      30000. kBytes
   nonl-proj :       1644. kBytes
   fftplans  :       1080. kBytes
   grid      :       7007. kBytes
   one-center:          9. kBytes
   wavefun   :        151. kBytes
 
  
  
 General timing and accounting informations for this job:
 ========================================================
  
                  Total CPU time used (sec):      584.746
                            User time (sec):      564.399
                          System time (sec):       20.347
                         Elapsed time (sec):      607.447
  
                   Maximum memory used (kb):      380764.
                   Average memory used (kb):           0.
  
                          Minor page faults:       206805
                          Major page faults:            0
                 Voluntary context switches:        15485
